HEADER
"PSFversion" "1.00"
"Log Generator" "drlLog rev. 1.0"
"Log Time Stamp" "Sat Mar  2 18:00:11 2024"
"psfversion" ""
"simulator" "spectre"
"version" "21.1.0.303.isr5"
"date" "6:00:11 PM, Sat Mar 2, 2024"
"design" "//techsweep.scs "
"signalNameType" "spectre"
"simMode" "Spectre"
"measdgt" 0
"ingold" 2
"sst2usecolon" 0
TYPE
"analysisInst" STRUCT(
"analysisType" STRING *
"dataFile" STRING *
"format" STRING *
"parent" STRING *
"sweepVariable" ARRAY ( * ) STRING *
"description" STRING *
)
VALUE
"sweepvds_sweepvgs-sweep" "analysisInst" (
"sweep"
"sweepvds_sweepvgs.sweep"
"PSF"
""
("ds")
"Sweep parent"
) PROP(
"sweep_tree_type" "sweepNode"
)

"sweepvds-000_sweepvgs-dc" "analysisInst" (
"dc"
"sweepvds-000_sweepvgs.dc"
"PSF"
"sweepvds_sweepvgs-sweep"
("gs")
"DC Analysis `sweepvds-000_sweepvgs': gs = (0 -> 900e-03)"
) PROP(
"data_type" "scalar"
"sweep_tree_type" "leafNode"
"ds" 0.00000
)

"sweepvds-001_sweepvgs-dc" "analysisInst" (
"dc"
"sweepvds-001_sweepvgs.dc"
"PSF"
"sweepvds_sweepvgs-sweep"
("gs")
"DC Analysis `sweepvds-001_sweepvgs': gs = (0 -> 900e-03)"
) PROP(
"data_type" "scalar"
"sweep_tree_type" "leafNode"
"ds" 0.0250000
)

"sweepvds-002_sweepvgs-dc" "analysisInst" (
"dc"
"sweepvds-002_sweepvgs.dc"
"PSF"
"sweepvds_sweepvgs-sweep"
("gs")
"DC Analysis `sweepvds-002_sweepvgs': gs = (0 -> 900e-03)"
) PROP(
"data_type" "scalar"
"sweep_tree_type" "leafNode"
"ds" 0.0500000
)

"sweepvds-003_sweepvgs-dc" "analysisInst" (
"dc"
"sweepvds-003_sweepvgs.dc"
"PSF"
"sweepvds_sweepvgs-sweep"
("gs")
"DC Analysis `sweepvds-003_sweepvgs': gs = (0 -> 900e-03)"
) PROP(
"data_type" "scalar"
"sweep_tree_type" "leafNode"
"ds" 0.0750000
)

"sweepvds-004_sweepvgs-dc" "analysisInst" (
"dc"
"sweepvds-004_sweepvgs.dc"
"PSF"
"sweepvds_sweepvgs-sweep"
("gs")
"DC Analysis `sweepvds-004_sweepvgs': gs = (0 -> 900e-03)"
) PROP(
"data_type" "scalar"
"sweep_tree_type" "leafNode"
"ds" 0.100000
)

"sweepvds-005_sweepvgs-dc" "analysisInst" (
"dc"
"sweepvds-005_sweepvgs.dc"
"PSF"
"sweepvds_sweepvgs-sweep"
("gs")
"DC Analysis `sweepvds-005_sweepvgs': gs = (0 -> 900e-03)"
) PROP(
"data_type" "scalar"
"sweep_tree_type" "leafNode"
"ds" 0.125000
)

"sweepvds-006_sweepvgs-dc" "analysisInst" (
"dc"
"sweepvds-006_sweepvgs.dc"
"PSF"
"sweepvds_sweepvgs-sweep"
("gs")
"DC Analysis `sweepvds-006_sweepvgs': gs = (0 -> 900e-03)"
) PROP(
"data_type" "scalar"
"sweep_tree_type" "leafNode"
"ds" 0.150000
)

"sweepvds-007_sweepvgs-dc" "analysisInst" (
"dc"
"sweepvds-007_sweepvgs.dc"
"PSF"
"sweepvds_sweepvgs-sweep"
("gs")
"DC Analysis `sweepvds-007_sweepvgs': gs = (0 -> 900e-03)"
) PROP(
"data_type" "scalar"
"sweep_tree_type" "leafNode"
"ds" 0.175000
)

"sweepvds-008_sweepvgs-dc" "analysisInst" (
"dc"
"sweepvds-008_sweepvgs.dc"
"PSF"
"sweepvds_sweepvgs-sweep"
("gs")
"DC Analysis `sweepvds-008_sweepvgs': gs = (0 -> 900e-03)"
) PROP(
"data_type" "scalar"
"sweep_tree_type" "leafNode"
"ds" 0.200000
)

"sweepvds-009_sweepvgs-dc" "analysisInst" (
"dc"
"sweepvds-009_sweepvgs.dc"
"PSF"
"sweepvds_sweepvgs-sweep"
("gs")
"DC Analysis `sweepvds-009_sweepvgs': gs = (0 -> 900e-03)"
) PROP(
"data_type" "scalar"
"sweep_tree_type" "leafNode"
"ds" 0.225000
)

"sweepvds-010_sweepvgs-dc" "analysisInst" (
"dc"
"sweepvds-010_sweepvgs.dc"
"PSF"
"sweepvds_sweepvgs-sweep"
("gs")
"DC Analysis `sweepvds-010_sweepvgs': gs = (0 -> 900e-03)"
) PROP(
"data_type" "scalar"
"sweep_tree_type" "leafNode"
"ds" 0.250000
)

"sweepvds-011_sweepvgs-dc" "analysisInst" (
"dc"
"sweepvds-011_sweepvgs.dc"
"PSF"
"sweepvds_sweepvgs-sweep"
("gs")
"DC Analysis `sweepvds-011_sweepvgs': gs = (0 -> 900e-03)"
) PROP(
"data_type" "scalar"
"sweep_tree_type" "leafNode"
"ds" 0.275000
)

"sweepvds-012_sweepvgs-dc" "analysisInst" (
"dc"
"sweepvds-012_sweepvgs.dc"
"PSF"
"sweepvds_sweepvgs-sweep"
("gs")
"DC Analysis `sweepvds-012_sweepvgs': gs = (0 -> 900e-03)"
) PROP(
"data_type" "scalar"
"sweep_tree_type" "leafNode"
"ds" 0.300000
)

"sweepvds-013_sweepvgs-dc" "analysisInst" (
"dc"
"sweepvds-013_sweepvgs.dc"
"PSF"
"sweepvds_sweepvgs-sweep"
("gs")
"DC Analysis `sweepvds-013_sweepvgs': gs = (0 -> 900e-03)"
) PROP(
"data_type" "scalar"
"sweep_tree_type" "leafNode"
"ds" 0.325000
)

"sweepvds-014_sweepvgs-dc" "analysisInst" (
"dc"
"sweepvds-014_sweepvgs.dc"
"PSF"
"sweepvds_sweepvgs-sweep"
("gs")
"DC Analysis `sweepvds-014_sweepvgs': gs = (0 -> 900e-03)"
) PROP(
"data_type" "scalar"
"sweep_tree_type" "leafNode"
"ds" 0.350000
)

"sweepvds-015_sweepvgs-dc" "analysisInst" (
"dc"
"sweepvds-015_sweepvgs.dc"
"PSF"
"sweepvds_sweepvgs-sweep"
("gs")
"DC Analysis `sweepvds-015_sweepvgs': gs = (0 -> 900e-03)"
) PROP(
"data_type" "scalar"
"sweep_tree_type" "leafNode"
"ds" 0.375000
)

"sweepvds-016_sweepvgs-dc" "analysisInst" (
"dc"
"sweepvds-016_sweepvgs.dc"
"PSF"
"sweepvds_sweepvgs-sweep"
("gs")
"DC Analysis `sweepvds-016_sweepvgs': gs = (0 -> 900e-03)"
) PROP(
"data_type" "scalar"
"sweep_tree_type" "leafNode"
"ds" 0.400000
)

"sweepvds-017_sweepvgs-dc" "analysisInst" (
"dc"
"sweepvds-017_sweepvgs.dc"
"PSF"
"sweepvds_sweepvgs-sweep"
("gs")
"DC Analysis `sweepvds-017_sweepvgs': gs = (0 -> 900e-03)"
) PROP(
"data_type" "scalar"
"sweep_tree_type" "leafNode"
"ds" 0.425000
)

"sweepvds-018_sweepvgs-dc" "analysisInst" (
"dc"
"sweepvds-018_sweepvgs.dc"
"PSF"
"sweepvds_sweepvgs-sweep"
("gs")
"DC Analysis `sweepvds-018_sweepvgs': gs = (0 -> 900e-03)"
) PROP(
"data_type" "scalar"
"sweep_tree_type" "leafNode"
"ds" 0.450000
)

"sweepvds-019_sweepvgs-dc" "analysisInst" (
"dc"
"sweepvds-019_sweepvgs.dc"
"PSF"
"sweepvds_sweepvgs-sweep"
("gs")
"DC Analysis `sweepvds-019_sweepvgs': gs = (0 -> 900e-03)"
) PROP(
"data_type" "scalar"
"sweep_tree_type" "leafNode"
"ds" 0.475000
)

"sweepvds-020_sweepvgs-dc" "analysisInst" (
"dc"
"sweepvds-020_sweepvgs.dc"
"PSF"
"sweepvds_sweepvgs-sweep"
("gs")
"DC Analysis `sweepvds-020_sweepvgs': gs = (0 -> 900e-03)"
) PROP(
"data_type" "scalar"
"sweep_tree_type" "leafNode"
"ds" 0.500000
)

"sweepvds-021_sweepvgs-dc" "analysisInst" (
"dc"
"sweepvds-021_sweepvgs.dc"
"PSF"
"sweepvds_sweepvgs-sweep"
("gs")
"DC Analysis `sweepvds-021_sweepvgs': gs = (0 -> 900e-03)"
) PROP(
"data_type" "scalar"
"sweep_tree_type" "leafNode"
"ds" 0.525000
)

"sweepvds-022_sweepvgs-dc" "analysisInst" (
"dc"
"sweepvds-022_sweepvgs.dc"
"PSF"
"sweepvds_sweepvgs-sweep"
("gs")
"DC Analysis `sweepvds-022_sweepvgs': gs = (0 -> 900e-03)"
) PROP(
"data_type" "scalar"
"sweep_tree_type" "leafNode"
"ds" 0.550000
)

"sweepvds-023_sweepvgs-dc" "analysisInst" (
"dc"
"sweepvds-023_sweepvgs.dc"
"PSF"
"sweepvds_sweepvgs-sweep"
("gs")
"DC Analysis `sweepvds-023_sweepvgs': gs = (0 -> 900e-03)"
) PROP(
"data_type" "scalar"
"sweep_tree_type" "leafNode"
"ds" 0.575000
)

"sweepvds-024_sweepvgs-dc" "analysisInst" (
"dc"
"sweepvds-024_sweepvgs.dc"
"PSF"
"sweepvds_sweepvgs-sweep"
("gs")
"DC Analysis `sweepvds-024_sweepvgs': gs = (0 -> 900e-03)"
) PROP(
"data_type" "scalar"
"sweep_tree_type" "leafNode"
"ds" 0.600000
)

"sweepvds-025_sweepvgs-dc" "analysisInst" (
"dc"
"sweepvds-025_sweepvgs.dc"
"PSF"
"sweepvds_sweepvgs-sweep"
("gs")
"DC Analysis `sweepvds-025_sweepvgs': gs = (0 -> 900e-03)"
) PROP(
"data_type" "scalar"
"sweep_tree_type" "leafNode"
"ds" 0.625000
)

"sweepvds-026_sweepvgs-dc" "analysisInst" (
"dc"
"sweepvds-026_sweepvgs.dc"
"PSF"
"sweepvds_sweepvgs-sweep"
("gs")
"DC Analysis `sweepvds-026_sweepvgs': gs = (0 -> 900e-03)"
) PROP(
"data_type" "scalar"
"sweep_tree_type" "leafNode"
"ds" 0.650000
)

"sweepvds-027_sweepvgs-dc" "analysisInst" (
"dc"
"sweepvds-027_sweepvgs.dc"
"PSF"
"sweepvds_sweepvgs-sweep"
("gs")
"DC Analysis `sweepvds-027_sweepvgs': gs = (0 -> 900e-03)"
) PROP(
"data_type" "scalar"
"sweep_tree_type" "leafNode"
"ds" 0.675000
)

"sweepvds-028_sweepvgs-dc" "analysisInst" (
"dc"
"sweepvds-028_sweepvgs.dc"
"PSF"
"sweepvds_sweepvgs-sweep"
("gs")
"DC Analysis `sweepvds-028_sweepvgs': gs = (0 -> 900e-03)"
) PROP(
"data_type" "scalar"
"sweep_tree_type" "leafNode"
"ds" 0.700000
)

"sweepvds-029_sweepvgs-dc" "analysisInst" (
"dc"
"sweepvds-029_sweepvgs.dc"
"PSF"
"sweepvds_sweepvgs-sweep"
("gs")
"DC Analysis `sweepvds-029_sweepvgs': gs = (0 -> 900e-03)"
) PROP(
"data_type" "scalar"
"sweep_tree_type" "leafNode"
"ds" 0.725000
)

"sweepvds-030_sweepvgs-dc" "analysisInst" (
"dc"
"sweepvds-030_sweepvgs.dc"
"PSF"
"sweepvds_sweepvgs-sweep"
("gs")
"DC Analysis `sweepvds-030_sweepvgs': gs = (0 -> 900e-03)"
) PROP(
"data_type" "scalar"
"sweep_tree_type" "leafNode"
"ds" 0.750000
)

"sweepvds-031_sweepvgs-dc" "analysisInst" (
"dc"
"sweepvds-031_sweepvgs.dc"
"PSF"
"sweepvds_sweepvgs-sweep"
("gs")
"DC Analysis `sweepvds-031_sweepvgs': gs = (0 -> 900e-03)"
) PROP(
"data_type" "scalar"
"sweep_tree_type" "leafNode"
"ds" 0.775000
)

"sweepvds-032_sweepvgs-dc" "analysisInst" (
"dc"
"sweepvds-032_sweepvgs.dc"
"PSF"
"sweepvds_sweepvgs-sweep"
("gs")
"DC Analysis `sweepvds-032_sweepvgs': gs = (0 -> 900e-03)"
) PROP(
"data_type" "scalar"
"sweep_tree_type" "leafNode"
"ds" 0.800000
)

"sweepvds-033_sweepvgs-dc" "analysisInst" (
"dc"
"sweepvds-033_sweepvgs.dc"
"PSF"
"sweepvds_sweepvgs-sweep"
("gs")
"DC Analysis `sweepvds-033_sweepvgs': gs = (0 -> 900e-03)"
) PROP(
"data_type" "scalar"
"sweep_tree_type" "leafNode"
"ds" 0.825000
)

"sweepvds-034_sweepvgs-dc" "analysisInst" (
"dc"
"sweepvds-034_sweepvgs.dc"
"PSF"
"sweepvds_sweepvgs-sweep"
("gs")
"DC Analysis `sweepvds-034_sweepvgs': gs = (0 -> 900e-03)"
) PROP(
"data_type" "scalar"
"sweep_tree_type" "leafNode"
"ds" 0.850000
)

"sweepvds-035_sweepvgs-dc" "analysisInst" (
"dc"
"sweepvds-035_sweepvgs.dc"
"PSF"
"sweepvds_sweepvgs-sweep"
("gs")
"DC Analysis `sweepvds-035_sweepvgs': gs = (0 -> 900e-03)"
) PROP(
"data_type" "scalar"
"sweep_tree_type" "leafNode"
"ds" 0.875000
)

"sweepvds-036_sweepvgs-dc" "analysisInst" (
"dc"
"sweepvds-036_sweepvgs.dc"
"PSF"
"sweepvds_sweepvgs-sweep"
("gs")
"DC Analysis `sweepvds-036_sweepvgs': gs = (0 -> 900e-03)"
) PROP(
"data_type" "scalar"
"sweep_tree_type" "leafNode"
"ds" 0.900000
)

"sweepvds_noise_sweepvgs_noise-sweep" "analysisInst" (
"sweep"
"sweepvds_noise_sweepvgs_noise.sweep"
"PSF"
""
("ds")
"Sweep parent"
) PROP(
"sweep_tree_type" "sweepNode"
)

"sweepvds_noise-000_sweepvgs_noise-noise" "analysisInst" (
"noise"
"sweepvds_noise-000_sweepvgs_noise.noise"
"PSF"
"sweepvds_noise_sweepvgs_noise-sweep"
("gs")
"Noise Analysis `sweepvds_noise-000_sweepvgs_noise': freq = 1 Hz, gs = (0 -> 900e-03)"
) PROP(
"data_type" "swept_struct"
"sweep_tree_type" "leafNode"
"ds" 0.00000
)

"sweepvds_noise-001_sweepvgs_noise-noise" "analysisInst" (
"noise"
"sweepvds_noise-001_sweepvgs_noise.noise"
"PSF"
"sweepvds_noise_sweepvgs_noise-sweep"
("gs")
"Noise Analysis `sweepvds_noise-001_sweepvgs_noise': freq = 1 Hz, gs = (0 -> 900e-03)"
) PROP(
"data_type" "swept_struct"
"sweep_tree_type" "leafNode"
"ds" 0.0250000
)

"sweepvds_noise-002_sweepvgs_noise-noise" "analysisInst" (
"noise"
"sweepvds_noise-002_sweepvgs_noise.noise"
"PSF"
"sweepvds_noise_sweepvgs_noise-sweep"
("gs")
"Noise Analysis `sweepvds_noise-002_sweepvgs_noise': freq = 1 Hz, gs = (0 -> 900e-03)"
) PROP(
"data_type" "swept_struct"
"sweep_tree_type" "leafNode"
"ds" 0.0500000
)

"sweepvds_noise-003_sweepvgs_noise-noise" "analysisInst" (
"noise"
"sweepvds_noise-003_sweepvgs_noise.noise"
"PSF"
"sweepvds_noise_sweepvgs_noise-sweep"
("gs")
"Noise Analysis `sweepvds_noise-003_sweepvgs_noise': freq = 1 Hz, gs = (0 -> 900e-03)"
) PROP(
"data_type" "swept_struct"
"sweep_tree_type" "leafNode"
"ds" 0.0750000
)

"sweepvds_noise-004_sweepvgs_noise-noise" "analysisInst" (
"noise"
"sweepvds_noise-004_sweepvgs_noise.noise"
"PSF"
"sweepvds_noise_sweepvgs_noise-sweep"
("gs")
"Noise Analysis `sweepvds_noise-004_sweepvgs_noise': freq = 1 Hz, gs = (0 -> 900e-03)"
) PROP(
"data_type" "swept_struct"
"sweep_tree_type" "leafNode"
"ds" 0.100000
)

"sweepvds_noise-005_sweepvgs_noise-noise" "analysisInst" (
"noise"
"sweepvds_noise-005_sweepvgs_noise.noise"
"PSF"
"sweepvds_noise_sweepvgs_noise-sweep"
("gs")
"Noise Analysis `sweepvds_noise-005_sweepvgs_noise': freq = 1 Hz, gs = (0 -> 900e-03)"
) PROP(
"data_type" "swept_struct"
"sweep_tree_type" "leafNode"
"ds" 0.125000
)

"sweepvds_noise-006_sweepvgs_noise-noise" "analysisInst" (
"noise"
"sweepvds_noise-006_sweepvgs_noise.noise"
"PSF"
"sweepvds_noise_sweepvgs_noise-sweep"
("gs")
"Noise Analysis `sweepvds_noise-006_sweepvgs_noise': freq = 1 Hz, gs = (0 -> 900e-03)"
) PROP(
"data_type" "swept_struct"
"sweep_tree_type" "leafNode"
"ds" 0.150000
)

"sweepvds_noise-007_sweepvgs_noise-noise" "analysisInst" (
"noise"
"sweepvds_noise-007_sweepvgs_noise.noise"
"PSF"
"sweepvds_noise_sweepvgs_noise-sweep"
("gs")
"Noise Analysis `sweepvds_noise-007_sweepvgs_noise': freq = 1 Hz, gs = (0 -> 900e-03)"
) PROP(
"data_type" "swept_struct"
"sweep_tree_type" "leafNode"
"ds" 0.175000
)

"sweepvds_noise-008_sweepvgs_noise-noise" "analysisInst" (
"noise"
"sweepvds_noise-008_sweepvgs_noise.noise"
"PSF"
"sweepvds_noise_sweepvgs_noise-sweep"
("gs")
"Noise Analysis `sweepvds_noise-008_sweepvgs_noise': freq = 1 Hz, gs = (0 -> 900e-03)"
) PROP(
"data_type" "swept_struct"
"sweep_tree_type" "leafNode"
"ds" 0.200000
)

"sweepvds_noise-009_sweepvgs_noise-noise" "analysisInst" (
"noise"
"sweepvds_noise-009_sweepvgs_noise.noise"
"PSF"
"sweepvds_noise_sweepvgs_noise-sweep"
("gs")
"Noise Analysis `sweepvds_noise-009_sweepvgs_noise': freq = 1 Hz, gs = (0 -> 900e-03)"
) PROP(
"data_type" "swept_struct"
"sweep_tree_type" "leafNode"
"ds" 0.225000
)

"sweepvds_noise-010_sweepvgs_noise-noise" "analysisInst" (
"noise"
"sweepvds_noise-010_sweepvgs_noise.noise"
"PSF"
"sweepvds_noise_sweepvgs_noise-sweep"
("gs")
"Noise Analysis `sweepvds_noise-010_sweepvgs_noise': freq = 1 Hz, gs = (0 -> 900e-03)"
) PROP(
"data_type" "swept_struct"
"sweep_tree_type" "leafNode"
"ds" 0.250000
)

"sweepvds_noise-011_sweepvgs_noise-noise" "analysisInst" (
"noise"
"sweepvds_noise-011_sweepvgs_noise.noise"
"PSF"
"sweepvds_noise_sweepvgs_noise-sweep"
("gs")
"Noise Analysis `sweepvds_noise-011_sweepvgs_noise': freq = 1 Hz, gs = (0 -> 900e-03)"
) PROP(
"data_type" "swept_struct"
"sweep_tree_type" "leafNode"
"ds" 0.275000
)

"sweepvds_noise-012_sweepvgs_noise-noise" "analysisInst" (
"noise"
"sweepvds_noise-012_sweepvgs_noise.noise"
"PSF"
"sweepvds_noise_sweepvgs_noise-sweep"
("gs")
"Noise Analysis `sweepvds_noise-012_sweepvgs_noise': freq = 1 Hz, gs = (0 -> 900e-03)"
) PROP(
"data_type" "swept_struct"
"sweep_tree_type" "leafNode"
"ds" 0.300000
)

"sweepvds_noise-013_sweepvgs_noise-noise" "analysisInst" (
"noise"
"sweepvds_noise-013_sweepvgs_noise.noise"
"PSF"
"sweepvds_noise_sweepvgs_noise-sweep"
("gs")
"Noise Analysis `sweepvds_noise-013_sweepvgs_noise': freq = 1 Hz, gs = (0 -> 900e-03)"
) PROP(
"data_type" "swept_struct"
"sweep_tree_type" "leafNode"
"ds" 0.325000
)

"sweepvds_noise-014_sweepvgs_noise-noise" "analysisInst" (
"noise"
"sweepvds_noise-014_sweepvgs_noise.noise"
"PSF"
"sweepvds_noise_sweepvgs_noise-sweep"
("gs")
"Noise Analysis `sweepvds_noise-014_sweepvgs_noise': freq = 1 Hz, gs = (0 -> 900e-03)"
) PROP(
"data_type" "swept_struct"
"sweep_tree_type" "leafNode"
"ds" 0.350000
)

"sweepvds_noise-015_sweepvgs_noise-noise" "analysisInst" (
"noise"
"sweepvds_noise-015_sweepvgs_noise.noise"
"PSF"
"sweepvds_noise_sweepvgs_noise-sweep"
("gs")
"Noise Analysis `sweepvds_noise-015_sweepvgs_noise': freq = 1 Hz, gs = (0 -> 900e-03)"
) PROP(
"data_type" "swept_struct"
"sweep_tree_type" "leafNode"
"ds" 0.375000
)

"sweepvds_noise-016_sweepvgs_noise-noise" "analysisInst" (
"noise"
"sweepvds_noise-016_sweepvgs_noise.noise"
"PSF"
"sweepvds_noise_sweepvgs_noise-sweep"
("gs")
"Noise Analysis `sweepvds_noise-016_sweepvgs_noise': freq = 1 Hz, gs = (0 -> 900e-03)"
) PROP(
"data_type" "swept_struct"
"sweep_tree_type" "leafNode"
"ds" 0.400000
)

"sweepvds_noise-017_sweepvgs_noise-noise" "analysisInst" (
"noise"
"sweepvds_noise-017_sweepvgs_noise.noise"
"PSF"
"sweepvds_noise_sweepvgs_noise-sweep"
("gs")
"Noise Analysis `sweepvds_noise-017_sweepvgs_noise': freq = 1 Hz, gs = (0 -> 900e-03)"
) PROP(
"data_type" "swept_struct"
"sweep_tree_type" "leafNode"
"ds" 0.425000
)

"sweepvds_noise-018_sweepvgs_noise-noise" "analysisInst" (
"noise"
"sweepvds_noise-018_sweepvgs_noise.noise"
"PSF"
"sweepvds_noise_sweepvgs_noise-sweep"
("gs")
"Noise Analysis `sweepvds_noise-018_sweepvgs_noise': freq = 1 Hz, gs = (0 -> 900e-03)"
) PROP(
"data_type" "swept_struct"
"sweep_tree_type" "leafNode"
"ds" 0.450000
)

"sweepvds_noise-019_sweepvgs_noise-noise" "analysisInst" (
"noise"
"sweepvds_noise-019_sweepvgs_noise.noise"
"PSF"
"sweepvds_noise_sweepvgs_noise-sweep"
("gs")
"Noise Analysis `sweepvds_noise-019_sweepvgs_noise': freq = 1 Hz, gs = (0 -> 900e-03)"
) PROP(
"data_type" "swept_struct"
"sweep_tree_type" "leafNode"
"ds" 0.475000
)

"sweepvds_noise-020_sweepvgs_noise-noise" "analysisInst" (
"noise"
"sweepvds_noise-020_sweepvgs_noise.noise"
"PSF"
"sweepvds_noise_sweepvgs_noise-sweep"
("gs")
"Noise Analysis `sweepvds_noise-020_sweepvgs_noise': freq = 1 Hz, gs = (0 -> 900e-03)"
) PROP(
"data_type" "swept_struct"
"sweep_tree_type" "leafNode"
"ds" 0.500000
)

"sweepvds_noise-021_sweepvgs_noise-noise" "analysisInst" (
"noise"
"sweepvds_noise-021_sweepvgs_noise.noise"
"PSF"
"sweepvds_noise_sweepvgs_noise-sweep"
("gs")
"Noise Analysis `sweepvds_noise-021_sweepvgs_noise': freq = 1 Hz, gs = (0 -> 900e-03)"
) PROP(
"data_type" "swept_struct"
"sweep_tree_type" "leafNode"
"ds" 0.525000
)

"sweepvds_noise-022_sweepvgs_noise-noise" "analysisInst" (
"noise"
"sweepvds_noise-022_sweepvgs_noise.noise"
"PSF"
"sweepvds_noise_sweepvgs_noise-sweep"
("gs")
"Noise Analysis `sweepvds_noise-022_sweepvgs_noise': freq = 1 Hz, gs = (0 -> 900e-03)"
) PROP(
"data_type" "swept_struct"
"sweep_tree_type" "leafNode"
"ds" 0.550000
)

"sweepvds_noise-023_sweepvgs_noise-noise" "analysisInst" (
"noise"
"sweepvds_noise-023_sweepvgs_noise.noise"
"PSF"
"sweepvds_noise_sweepvgs_noise-sweep"
("gs")
"Noise Analysis `sweepvds_noise-023_sweepvgs_noise': freq = 1 Hz, gs = (0 -> 900e-03)"
) PROP(
"data_type" "swept_struct"
"sweep_tree_type" "leafNode"
"ds" 0.575000
)

"sweepvds_noise-024_sweepvgs_noise-noise" "analysisInst" (
"noise"
"sweepvds_noise-024_sweepvgs_noise.noise"
"PSF"
"sweepvds_noise_sweepvgs_noise-sweep"
("gs")
"Noise Analysis `sweepvds_noise-024_sweepvgs_noise': freq = 1 Hz, gs = (0 -> 900e-03)"
) PROP(
"data_type" "swept_struct"
"sweep_tree_type" "leafNode"
"ds" 0.600000
)

"sweepvds_noise-025_sweepvgs_noise-noise" "analysisInst" (
"noise"
"sweepvds_noise-025_sweepvgs_noise.noise"
"PSF"
"sweepvds_noise_sweepvgs_noise-sweep"
("gs")
"Noise Analysis `sweepvds_noise-025_sweepvgs_noise': freq = 1 Hz, gs = (0 -> 900e-03)"
) PROP(
"data_type" "swept_struct"
"sweep_tree_type" "leafNode"
"ds" 0.625000
)

"sweepvds_noise-026_sweepvgs_noise-noise" "analysisInst" (
"noise"
"sweepvds_noise-026_sweepvgs_noise.noise"
"PSF"
"sweepvds_noise_sweepvgs_noise-sweep"
("gs")
"Noise Analysis `sweepvds_noise-026_sweepvgs_noise': freq = 1 Hz, gs = (0 -> 900e-03)"
) PROP(
"data_type" "swept_struct"
"sweep_tree_type" "leafNode"
"ds" 0.650000
)

"sweepvds_noise-027_sweepvgs_noise-noise" "analysisInst" (
"noise"
"sweepvds_noise-027_sweepvgs_noise.noise"
"PSF"
"sweepvds_noise_sweepvgs_noise-sweep"
("gs")
"Noise Analysis `sweepvds_noise-027_sweepvgs_noise': freq = 1 Hz, gs = (0 -> 900e-03)"
) PROP(
"data_type" "swept_struct"
"sweep_tree_type" "leafNode"
"ds" 0.675000
)

"sweepvds_noise-028_sweepvgs_noise-noise" "analysisInst" (
"noise"
"sweepvds_noise-028_sweepvgs_noise.noise"
"PSF"
"sweepvds_noise_sweepvgs_noise-sweep"
("gs")
"Noise Analysis `sweepvds_noise-028_sweepvgs_noise': freq = 1 Hz, gs = (0 -> 900e-03)"
) PROP(
"data_type" "swept_struct"
"sweep_tree_type" "leafNode"
"ds" 0.700000
)

"sweepvds_noise-029_sweepvgs_noise-noise" "analysisInst" (
"noise"
"sweepvds_noise-029_sweepvgs_noise.noise"
"PSF"
"sweepvds_noise_sweepvgs_noise-sweep"
("gs")
"Noise Analysis `sweepvds_noise-029_sweepvgs_noise': freq = 1 Hz, gs = (0 -> 900e-03)"
) PROP(
"data_type" "swept_struct"
"sweep_tree_type" "leafNode"
"ds" 0.725000
)

"sweepvds_noise-030_sweepvgs_noise-noise" "analysisInst" (
"noise"
"sweepvds_noise-030_sweepvgs_noise.noise"
"PSF"
"sweepvds_noise_sweepvgs_noise-sweep"
("gs")
"Noise Analysis `sweepvds_noise-030_sweepvgs_noise': freq = 1 Hz, gs = (0 -> 900e-03)"
) PROP(
"data_type" "swept_struct"
"sweep_tree_type" "leafNode"
"ds" 0.750000
)

"sweepvds_noise-031_sweepvgs_noise-noise" "analysisInst" (
"noise"
"sweepvds_noise-031_sweepvgs_noise.noise"
"PSF"
"sweepvds_noise_sweepvgs_noise-sweep"
("gs")
"Noise Analysis `sweepvds_noise-031_sweepvgs_noise': freq = 1 Hz, gs = (0 -> 900e-03)"
) PROP(
"data_type" "swept_struct"
"sweep_tree_type" "leafNode"
"ds" 0.775000
)

"sweepvds_noise-032_sweepvgs_noise-noise" "analysisInst" (
"noise"
"sweepvds_noise-032_sweepvgs_noise.noise"
"PSF"
"sweepvds_noise_sweepvgs_noise-sweep"
("gs")
"Noise Analysis `sweepvds_noise-032_sweepvgs_noise': freq = 1 Hz, gs = (0 -> 900e-03)"
) PROP(
"data_type" "swept_struct"
"sweep_tree_type" "leafNode"
"ds" 0.800000
)

"sweepvds_noise-033_sweepvgs_noise-noise" "analysisInst" (
"noise"
"sweepvds_noise-033_sweepvgs_noise.noise"
"PSF"
"sweepvds_noise_sweepvgs_noise-sweep"
("gs")
"Noise Analysis `sweepvds_noise-033_sweepvgs_noise': freq = 1 Hz, gs = (0 -> 900e-03)"
) PROP(
"data_type" "swept_struct"
"sweep_tree_type" "leafNode"
"ds" 0.825000
)

"sweepvds_noise-034_sweepvgs_noise-noise" "analysisInst" (
"noise"
"sweepvds_noise-034_sweepvgs_noise.noise"
"PSF"
"sweepvds_noise_sweepvgs_noise-sweep"
("gs")
"Noise Analysis `sweepvds_noise-034_sweepvgs_noise': freq = 1 Hz, gs = (0 -> 900e-03)"
) PROP(
"data_type" "swept_struct"
"sweep_tree_type" "leafNode"
"ds" 0.850000
)

"sweepvds_noise-035_sweepvgs_noise-noise" "analysisInst" (
"noise"
"sweepvds_noise-035_sweepvgs_noise.noise"
"PSF"
"sweepvds_noise_sweepvgs_noise-sweep"
("gs")
"Noise Analysis `sweepvds_noise-035_sweepvgs_noise': freq = 1 Hz, gs = (0 -> 900e-03)"
) PROP(
"data_type" "swept_struct"
"sweep_tree_type" "leafNode"
"ds" 0.875000
)

"sweepvds_noise-036_sweepvgs_noise-noise" "analysisInst" (
"noise"
"sweepvds_noise-036_sweepvgs_noise.noise"
"PSF"
"sweepvds_noise_sweepvgs_noise-sweep"
("gs")
"Noise Analysis `sweepvds_noise-036_sweepvgs_noise': freq = 1 Hz, gs = (0 -> 900e-03)"
) PROP(
"data_type" "swept_struct"
"sweep_tree_type" "leafNode"
"ds" 0.900000
)

END
